2
2.412258198	-0.000000000	0.000000000	-0.000000000	2.412258198	-0.000000000	0.000000000	0.000000000	2.440306076
3.55326 -0.31018 -0.22346 -0.31018 3.19509 0.12901 0.19104 -0.11030 3.48184
-1.40430 0.56031 -0.47640 0.60297 -1.97352 0.72680 -0.52723 0.70300 -1.74255
