432  
9    

1    
  0.0200000000000000   0.0000000000000000   0.0000000000000000
  -0.0193326300    0.0005490001   -0.0005412902
   0.0005205800    0.0000513801   -0.0002950802
   0.0001417200    0.0000019101   -0.0000125902
   0.0005165700    0.0000374801    0.0002010098
   0.0000076200   -0.0002481299   -0.0000978302
  -0.0000795200    0.0002344501    0.0000245298
   0.0000708400    0.0000570701   -0.0000200402
   0.0000743600   -0.0000412699   -0.0000108702
   0.0000206700   -0.0000625199   -0.0000056002
   0.0000044800   -0.0000067999    0.0000013898
  -0.0000008900    0.0000552001    0.0000019598
  -0.0000156400    0.0000032201   -0.0000059602
  -0.0000026900   -0.0002538999    0.0000510098
   0.0000846100   -0.0000595099   -0.0000042702
   0.0000794300    0.0000271201    0.0000081798
  -0.0000902600    0.0002138901   -0.0000037802
  -0.0001883700    0.0000946401   -0.0000043302
   0.0000674300   -0.0000521699    0.0001363398
   0.0000775300   -0.0000093199   -0.0000029602
   0.0000489100   -0.0000441499   -0.0001175002
  -0.0000130300   -0.0000739999   -0.0000727702
  -0.0000566000    0.0001129501    0.0000944398
   0.0000372300    0.0000366301    0.0000143098
   0.0000396200   -0.0000296099   -0.0000283602
   0.0000126100   -0.0000440399   -0.0000045802
   0.0000069300    0.0000014301    0.0000039498
  -0.0000017700    0.0000475501    0.0000008798
  -0.0000091500    0.0000067601   -0.0000082902
  -0.0000030600   -0.0000961999    0.0000598098
   0.0000519400   -0.0000449099    0.0000223998
   0.0000445700    0.0000172501   -0.0000160402
  -0.0000758800    0.0000927901   -0.0000594702
  -0.0001857700    0.0000128501    0.0000272498
   0.0000475600    0.0000179901   -0.0000636002
   0.0000748800   -0.0000011699   -0.0000041902
   0.0000689200   -0.0000007999    0.0000569898
   0.0000087300   -0.0000269999    0.0000553598
  -0.0000685900    0.0000308101    0.0000158998
   0.0000341700    0.0000280701   -0.0000130702
   0.0000456600   -0.0000133199    0.0000071998
   0.0000157700   -0.0000258699   -0.0000001902
   0.0000064000   -0.0000018199    0.0000108398
  -0.0000041600    0.0000328801    0.0000068098
  -0.0000079200    0.0000045001   -0.0000029702
  -0.0000189400   -0.0000196299   -0.0000316102
   0.0000464300   -0.0000184699   -0.0000092702
   0.0000425700    0.0000103601    0.0000125198
  -0.0000635200    0.0000256901    0.0000093698
  -0.0005691500   -0.0002513499    0.0003825598
   0.0000805200   -0.0000689799    0.0000578898
   0.0000683100    0.0000173101   -0.0000253702
   0.0001943900    0.0002309401   -0.0003000202
  -0.0003683800   -0.0003706899   -0.0003030502
   0.0002220300    0.0003900701    0.0002881798
   0.0000746600    0.0000296001    0.0000253398
   0.0000806300   -0.0000404199   -0.0000424902
  -0.0000075800   -0.0000655199   -0.0000132902
  -0.0000557300    0.0000100901   -0.0000226902
   0.0000261800    0.0000625601    0.0000213898
   0.0000197800   -0.0000082599    0.0000117098
  -0.0000106200   -0.0000592799    0.0000253098
   0.0000091800   -0.0000220499   -0.0000071502
   0.0000206100    0.0000499501   -0.0000290102
  -0.0000332200    0.0000350501    0.0000115798
  -0.0000487800    0.0000048401    0.0000039798
   0.0000141400   -0.0000244699    0.0000014398
   0.0000247900    0.0000043801   -0.0000018202
  -0.0000092000    0.0000342001    0.0000035498
  -0.0000402600   -0.0000055999    0.0000152598
  -0.0000297700    0.0000213701    0.0000023998
   0.0000283100    0.0000026201    0.0000077998
   0.0000275200   -0.0000175099    0.0000103798
   0.0000042300   -0.0000324799    0.0000084398
  -0.0000260700   -0.0000012499    0.0000025998
   0.0000019600    0.0000235001    0.0000066298
   0.0000165300   -0.0000073599    0.0000094698
   0.0000013200   -0.0000252299    0.0000043298
   0.0000025700   -0.0000130299   -0.0000027202
  -0.0000005700    0.0000246101   -0.0000026902
  -0.0000114400    0.0000161301    0.0000060198
   0.0000666800   -0.0005440999   -0.0004941302
   0.0001217400   -0.0001282399   -0.0000959102
   0.0000628600    0.0000035001   -0.0000021902
   0.0000853100    0.0001719401    0.0001513698
   0.0004900800   -0.0007886199    0.0007987798
   0.0001089800    0.0002749101   -0.0002410602
   0.0000691300    0.0000099601   -0.0000116002
   0.0001241800   -0.0000767999    0.0000888498
   0.0000301300   -0.0000834399    0.0000305398
  -0.0000880000   -0.0000067499   -0.0000638702
   0.0000091100    0.0000500601   -0.0000048702
   0.0000217800   -0.0000154999    0.0000159598
   0.0000214900   -0.0000733699   -0.0000230702
   0.0000166600   -0.0000284199   -0.0000196802
   0.0000069700    0.0000411901   -0.0000055402
  -0.0000598000    0.0000399401    0.0000446598
   0.0018964400   -0.0000310599   -0.0013178502
   0.0019004100   -0.0005123499    0.0018466898
   0.0002013700   -0.0000159799    0.0000827398
   0.0002054900   -0.0000037299   -0.0000449302
   0.0000876700   -0.0001010899   -0.0000274802
  -0.0003092200   -0.0000493799    0.0000057398
   0.0000791500    0.0001561101   -0.0000190502
   0.0000841200    0.0000025201   -0.0000002802
   0.0000097300   -0.0000481099   -0.0000064502
  -0.0000018800   -0.0000589799    0.0000048398
  -0.0000058500    0.0000280001    0.0000050398
   0.0000058500    0.0000340401   -0.0000050002
  -0.0002256500    0.0000039801   -0.0000572402
   0.0000615600   -0.0001140599    0.0000237398
   0.0000696300   -0.0000066499    0.0000139698
   0.0000622100    0.0001187701    0.0000274398
  -0.0000693700    0.0000215101   -0.0000415502
  -0.0000701200    0.0000017301    0.0000434798
   0.0000728000   -0.0000038099    0.0000334598
   0.0000734600    0.0000095401   -0.0000114302
   0.0000198800   -0.0000305499   -0.0000143902
  -0.0000865900   -0.0000084599   -0.0000003902
   0.0000169200    0.0000208601    0.0000249098
   0.0000547200   -0.0000044699    0.0000004898
   0.0000091000   -0.0000321899   -0.0000052802
  -0.0000045500   -0.0000362799    0.0000006898
  -0.0000067700    0.0000093101    0.0000026998
   0.0000068300    0.0000121901   -0.0000046102
  -0.0000696100    0.0000029401   -0.0000043602
   0.0000163200   -0.0000346199    0.0000203298
   0.0000412000   -0.0000010199    0.0000076098
   0.0000147300    0.0000355401   -0.0000149702
  -0.0000424600    0.0001785501    0.0003332898
  -0.0000468800   -0.0000557599   -0.0003129302
   0.0000816800    0.0000164001   -0.0000423802
   0.0000849600    0.0000230901    0.0000374198
   0.0000368900   -0.0000700299    0.0000400198
  -0.0001644300   -0.0001835399    0.0000965598
   0.0000320000    0.0000965301   -0.0000711902
   0.0000586900    0.0000023401   -0.0000069802
   0.0000081700   -0.0000439999   -0.0000129802
  -0.0000039300   -0.0000563999    0.0000085298
  -0.0000053900    0.0000120801    0.0000084398
   0.0000068400    0.0000235801   -0.0000018602
  -0.0000828600   -0.0000691599   -0.0000696702
   0.0000158100   -0.0000632399   -0.0000506902
   0.0000440500    0.0000006401    0.0000061998
   0.0000179400    0.0000840901    0.0000673798
   0.0001476600   -0.0000437699    0.0001054498
  -0.0000974800    0.0000142601   -0.0001338702
  -0.0000321600    0.0000130201   -0.0000174002
  -0.0000274100    0.0000187501    0.0000211398
  -0.0000014500    0.0000334901    0.0000040998
   0.0000353700   -0.0000396099    0.0000102598
  -0.0000073400   -0.0000105599   -0.0000069802
  -0.0000141400    0.0000196001   -0.0000067002
  -0.0000106600    0.0000340501   -0.0000166702
  -0.0000034800    0.0000084301   -0.0000030002
   0.0000091200   -0.0000237099    0.0000132998
   0.0000140700   -0.0000068599    0.0000051398
   0.0000246700    0.0001100301   -0.0001226102
  -0.0000380200    0.0000445601   -0.0000372302
  -0.0000168100   -0.0000056599    0.0000060298
   0.0000461700   -0.0001064099    0.0001097198
   0.0000405100   -0.0000134099   -0.0000034502
   0.0000087000   -0.0000187799    0.0000236998
  -0.0000188300    0.0000067401   -0.0000052502
  -0.0000195500    0.0000184101   -0.0000222202
  -0.0000078600    0.0000274101   -0.0000209802
   0.0000196300   -0.0000072899    0.0000018298
  -0.0000006000   -0.0000098999    0.0000056798
  -0.0000128900    0.0000165501   -0.0000100002
  -0.0000060000    0.0000219101   -0.0000071302
  -0.0000036100    0.0000103901   -0.0000053002
   0.0000059900   -0.0000115999    0.0000038198
   0.0000082000   -0.0000005899    0.0000031398
   0.0000199300   -0.0000007299    0.0000166098
  -0.0000130100    0.0000160001   -0.0000033202
  -0.0000121300    0.0000019101   -0.0000054202
   0.0000199000   -0.0000210399    0.0000034298
   0.0019594000   -0.0021326199    0.0011110898
  -0.0000843200   -0.0000958099    0.0001186798
  -0.0000406800    0.0000126301   -0.0000090902
  -0.0001334400    0.0000957301   -0.0001036902
  -0.0000276300    0.0000879201   -0.0000257902
   0.0000594100   -0.0000726299    0.0000448298
  -0.0000035200   -0.0000226599    0.0000121598
  -0.0000241100    0.0000300501   -0.0000149402
  -0.0000188200    0.0000455701   -0.0000135102
  -0.0000067800    0.0000136501   -0.0000046902
   0.0000081000   -0.0000255399    0.0000084898
   0.0000199800   -0.0000089199    0.0000027798
   0.0000240100    0.0001579901    0.0000486898
  -0.0000510300    0.0000585901   -0.0000148902
  -0.0000297400   -0.0000008099   -0.0000105302
  -0.0000004500   -0.0001455799   -0.0000246902
  -0.0000692800    0.0004253901    0.0005098098
  -0.0003865800   -0.0003808899   -0.0006187802
  -0.0000600500   -0.0000352399   -0.0000385602
  -0.0000429100    0.0000110501    0.0000182498
  -0.0000016400    0.0000529001    0.0000330598
   0.0000509700    0.0000290901    0.0000123298
  -0.0000334200   -0.0000704799   -0.0000335802
  -0.0000192400   -0.0000026799   -0.0000030302
   0.0000065300    0.0000317801    0.0000103398
  -0.0000021000    0.0000213901    0.0000078798
  -0.0000124600   -0.0000216899   -0.0000064302
  -0.0000001500   -0.0000161699   -0.0000054602
   0.0001664400    0.0000769801    0.0000357098
  -0.0000326100    0.0000439501   -0.0000100302
  -0.0000325000   -0.0000123099   -0.0000074402
  -0.0000708400   -0.0001091399   -0.0000066402
   0.0000174800    0.0000087601    0.0000082798
   0.0000115200   -0.0000072499   -0.0000082102
  -0.0000236900   -0.0000120099   -0.0000130202
  -0.0000203200    0.0000006701   -0.0000005102
  -0.0000033000    0.0000177001    0.0000061198
   0.0000148000    0.0000047501   -0.0000007702
  -0.0000100500   -0.0000193199   -0.0000137902
  -0.0000134500   -0.0000017499   -0.0000035402
   0.0000014500    0.0000164601    0.0000056198
  -0.0000023600    0.0000118301    0.0000026098
  -0.0000061300   -0.0000102799   -0.0000054802
  -0.0000009200   -0.0000062999   -0.0000021902
   0.0000206200    0.0000079701    0.0000061598
  -0.0000058500    0.0000114201   -0.0000004802
  -0.0000182000   -0.0000052599   -0.0000049402
  -0.0000064000   -0.0000127999   -0.0000016202
  -0.0001153300   -0.0000513899   -0.0002762702
  -0.0000352500   -0.0000224299    0.0001999298
  -0.0000402800   -0.0000145899    0.0000046398
  -0.0000509300   -0.0000189899   -0.0000398402
  -0.0000093000    0.0000328901   -0.0000035202
   0.0000537200    0.0000683401    0.0000264998
  -0.0000186600   -0.0000406099   -0.0000025402
  -0.0000179600   -0.0000028399   -0.0000047502
   0.0000054600    0.0000367701    0.0000188998
  -0.0000009800    0.0000243101    0.0000097198
  -0.0000087400   -0.0000142999   -0.0000062502
   0.0000017200   -0.0000139799   -0.0000098302
   0.0000697000    0.0001490801    0.0001135098
  -0.0000106800    0.0000572601    0.0000447098
  -0.0000278500   -0.0000088399   -0.0000076002
  -0.0000471100   -0.0000830899   -0.0000681902
   0.0050751200    0.0016359801   -0.0038135502
  -0.0006656700    0.0000473901    0.0000649698
  -0.0001039600   -0.0000022799    0.0000299198
  -0.0002154100   -0.0000256699    0.0000680098
  -0.0000424000    0.0000608701    0.0000326898
   0.0001485900   -0.0000872299   -0.0000427502
  -0.0000577000   -0.0000355699    0.0000282498
  -0.0000517400    0.0000022101    0.0000214598
  -0.0000079400    0.0000144701    0.0000035698
   0.0000058000    0.0000086401   -0.0000019202
   0.0000025100   -0.0000185899    0.0000001298
  -0.0000012300   -0.0000084099    0.0000024298
   0.0000963600    0.0000451001   -0.0000482102
  -0.0000416400    0.0000197701    0.0000120398
  -0.0000412500   -0.0000090299    0.0000139098
  -0.0000037700   -0.0000518499    0.0000078098
   0.0000583800   -0.0000148599   -0.0000087502
   0.0000328800    0.0000061801   -0.0000501602
  -0.0000412400   -0.0000021399    0.0000100498
  -0.0000484800   -0.0000024399    0.0000419398
  -0.0000104700    0.0000104801    0.0000191098
   0.0000570600   -0.0000116999   -0.0000375202
  -0.0000131600   -0.0000133699   -0.0000038702
  -0.0000295900    0.0000003701    0.0000147398
  -0.0000047200    0.0000078201    0.0000016598
   0.0000032500    0.0000026001   -0.0000026402
   0.0000031300   -0.0000122599   -0.0000019002
  -0.0000014000   -0.0000061499    0.0000019498
   0.0000402200    0.0000165401   -0.0000329702
  -0.0000122500    0.0000088501   -0.0000043002
  -0.0000242100   -0.0000064599    0.0000112098
  -0.0000013700   -0.0000239499    0.0000202098
   0.0001350800   -0.0000357999   -0.0000968902
  -0.0000459700    0.0000065701    0.0000786998
  -0.0000522600   -0.0000055299    0.0000264498
  -0.0000347800   -0.0000060899   -0.0000096002
  -0.0000031300    0.0000191901   -0.0000260602
   0.0000876800    0.0000035901   -0.0000384702
  -0.0000314200   -0.0000197999    0.0000271998
  -0.0000311700   -0.0000004399    0.0000085598
  -0.0000078800    0.0000091001    0.0000037498
   0.0000039100    0.0000066301   -0.0000039002
   0.0000043600   -0.0000111999   -0.0000012202
  -0.0000008600   -0.0000062299    0.0000012398
   0.0000104800    0.0000130401    0.0000194398
  -0.0000267600    0.0000091401    0.0000212598
  -0.0000227100   -0.0000060499    0.0000059898
   0.0000251600   -0.0000192899   -0.0000240402
   0.0082749500    0.0014575001    0.0035673698
  -0.0002125100   -0.0000035499   -0.0000497702
  -0.0001036100    0.0000079501   -0.0000312602
  -0.0006279800    0.0000516701   -0.0001124602
   0.0001008900    0.0000550201    0.0000675698
   0.0000001900   -0.0000495799   -0.0000000802
  -0.0000447100   -0.0000029999   -0.0000135202
  -0.0000478800    0.0000259201   -0.0000142402
  -0.0000068900    0.0000213701   -0.0000024802
   0.0000045800   -0.0000017899    0.0000024698
   0.0000012900   -0.0000129099    0.0000013198
   0.0000033900    0.0000115701    0.0000015198
  -0.0000313700    0.0000693401   -0.0000203702
  -0.0000483400    0.0000127701   -0.0000191502
  -0.0000476800   -0.0000215599   -0.0000199802
   0.0001177700   -0.0000753899    0.0000411698
   0.0000722500   -0.0000024799   -0.0000015302
  -0.0000584500    0.0000092901   -0.0000487502
  -0.0000429300    0.0000041501   -0.0000117202
   0.0000258700    0.0000016601    0.0000515898
   0.0000445100    0.0000149101    0.0000301198
  -0.0000067000   -0.0000179299   -0.0000268402
  -0.0000267600   -0.0000006899   -0.0000134102
  -0.0000145800    0.0000129201    0.0000010798
  -0.0000045400    0.0000145801   -0.0000027802
   0.0000005900    0.0000002101   -0.0000012302
   0.0000019300   -0.0000070599    0.0000006598
   0.0000019100    0.0000076901    0.0000001898
  -0.0000135300    0.0000213201   -0.0000221702
  -0.0000310600    0.0000093901   -0.0000160002
  -0.0000134700   -0.0000077099    0.0000049598
   0.0000541000   -0.0000079999    0.0000273298
   0.0001226100   -0.0000103399    0.0000918098
  -0.0000271900    0.0000003401    0.0000088698
  -0.0000513600    0.0000031601   -0.0000260102
  -0.0000562500   -0.0000102699   -0.0000895302
   0.0000027700    0.0000408101   -0.0000419802
   0.0000338900   -0.0000178599    0.0000292698
  -0.0000250500    0.0000000801   -0.0000064002
  -0.0000336900    0.0000176201   -0.0000250202
  -0.0000079500    0.0000166001   -0.0000062702
   0.0000021700    0.0000014301   -0.0000003202
   0.0000029000   -0.0000056099    0.0000012698
  -0.0000000800    0.0000100101    0.0000009398
   0.0000066900    0.0000175601    0.0000170598
  -0.0000266700    0.0000078001   -0.0000087502
  -0.0000245400   -0.0000085199   -0.0000222202
   0.0000526400    0.0000005201    0.0000282898
   0.0001370700    0.0006466601   -0.0007039002
  -0.0000417400    0.0000154101   -0.0000214702
  -0.0000557300   -0.0000342499    0.0000343798
  -0.0003515700   -0.0003131299    0.0003603798
   0.0001891700    0.0001158901   -0.0000140902
  -0.0000911100   -0.0001487299    0.0000178198
  -0.0000329900   -0.0000203099    0.0000110198
  -0.0000359700    0.0000283601    0.0000213698
   0.0000122700    0.0000299901   -0.0000064002
   0.0000108200   -0.0000154999    0.0000021498
  -0.0000127200   -0.0000298799    0.0000090898
  -0.0000001900    0.0000121901   -0.0000028702
   0.0000121500    0.0000495201   -0.0000280002
  -0.0000108400   -0.0000001899    0.0000013498
  -0.0000247800   -0.0000543099    0.0000220498
   0.0000389500    0.0000051401    0.0000003398
   0.0000290000    0.0000110701   -0.0000200502
  -0.0000119300    0.0000033901   -0.0000048602
  -0.0000199200   -0.0000135199    0.0000110698
   0.0000124700   -0.0000118399    0.0000083998
   0.0000290200    0.0000100601   -0.0000115602
   0.0000026700   -0.0000137099   -0.0000062602
  -0.0000161500   -0.0000098499    0.0000058998
  -0.0000043000    0.0000067101    0.0000009598
   0.0000078100    0.0000164301   -0.0000085502
   0.0000068500   -0.0000054799   -0.0000026002
  -0.0000036400   -0.0000145299    0.0000049098
   0.0000004000    0.0000067601   -0.0000024502
   0.0000060500    0.0000184101   -0.0000116602
  -0.0000061900   -0.0000000199    0.0000002098
  -0.0000061200   -0.0000192399    0.0000097798
   0.0000173100    0.0000012501   -0.0000035002
   0.0000465900    0.0000270901    0.0000676698
  -0.0000477100   -0.0000107799    0.0000452798
  -0.0000318000   -0.0000180299    0.0000044398
  -0.0000003300   -0.0000547099   -0.0000789102
   0.0001120400    0.0002482801   -0.0002908902
  -0.0000570600   -0.0001065999    0.0000906898
  -0.0000287700   -0.0000179199    0.0000155598
  -0.0000154300    0.0000364001   -0.0000334902
   0.0000119100    0.0000350601   -0.0000202002
   0.0000161800   -0.0000050399    0.0000062698
  -0.0000091800   -0.0000242699    0.0000114498
   0.0000001500    0.0000128501   -0.0000046102
   0.0000019500    0.0000267101    0.0000038198
  -0.0000087400    0.0000000901    0.0000035498
  -0.0000099900   -0.0000324099    0.0000021098
   0.0000386100    0.0000276301   -0.0000159002
   0.0001878800   -0.0000789499   -0.0000712502
  -0.0000455800    0.0000239501   -0.0000386202
  -0.0000362000    0.0000129101    0.0000133198
  -0.0000750000    0.0000285501    0.0001065498
   0.0000086300    0.0001099501    0.0000864898
   0.0000459100   -0.0001546399   -0.0001195802
  -0.0000234800   -0.0000146899   -0.0000113802
  -0.0000365500    0.0000347101    0.0000293798
  -0.0000152000    0.0000327401    0.0000162698
   0.0000082200   -0.0000065599   -0.0000013702
   0.0000037400   -0.0000331599   -0.0000168002
  -0.0000074600    0.0000015301    0.0000007998
  -0.0000057800    0.0000344501   -0.0000009902
  -0.0000209100    0.0000233601    0.0000072798
  -0.0000124400   -0.0000119499    0.0000047998
   0.0000244400   -0.0000412399   -0.0000090402
   0.0000406100   -0.0000217499   -0.0000156602
  -0.0000170900    0.0000137001    0.0000188298
  -0.0000232500    0.0000049401    0.0000050798
  -0.0000048600   -0.0000241199   -0.0000235702
   0.0000094500   -0.0000063099   -0.0000194002
   0.0000209100   -0.0000254199   -0.0000130202
  -0.0000149000   -0.0000029899    0.0000033898
  -0.0000192200    0.0000114801    0.0000027098
  -0.0000113600    0.0000203901    0.0000072198
   0.0000031200   -0.0000006599   -0.0000031102
   0.0000024600   -0.0000171099   -0.0000068502
  -0.0000066600    0.0000037201    0.0000023998
  -0.0000039600    0.0000158401    0.0000114098
  -0.0000157500    0.0000155201    0.0000096798
  -0.0000072400   -0.0000107199   -0.0000052402
   0.0000138500   -0.0000169499   -0.0000084702
   0.0013131300   -0.0005812199   -0.0004396502
  -0.0001292200    0.0001146101    0.0001282498
  -0.0000420300    0.0000127101    0.0000110598
  -0.0000660600   -0.0000853899   -0.0000958202
  -0.0000837800    0.0001960901    0.0000300998
   0.0000281000   -0.0001706299    0.0000102298
  -0.0000343400   -0.0000069399    0.0000099598
  -0.0000491400    0.0000466901    0.0000127798
  -0.0000232200    0.0000456601    0.0000157498
   0.0000128100    0.0000019301    0.0000061598
   0.0000034200   -0.0000310999   -0.0000103102
  -0.0000090400    0.0000053901    0.0000026498
  -0.0000240200    0.0000867101    0.0000332198
  -0.0000275100    0.0000349101    0.0000190398
  -0.0000111300   -0.0000203899   -0.0000098602
   0.0000402600   -0.0000776699   -0.0000445102

1    
 -0.0200000000000000   0.0000000000000000   0.0000000000000000
   0.0189902201   -0.0006177503   -0.0000667399
  -0.0005145799   -0.0000402303    0.0002903701
  -0.0001344799   -0.0000002703    0.0000107201
  -0.0005185599   -0.0000508303   -0.0001995199
   0.0000007601    0.0002571797    0.0001017501
   0.0000930801   -0.0002092903   -0.0000239399
  -0.0000720599   -0.0000313803    0.0000229901
  -0.0000820299    0.0000518597    0.0000182101
  -0.0000228199    0.0000696897    0.0000073101
   0.0000182801    0.0000183597   -0.0000043399
   0.0000083001   -0.0000423803   -0.0000018999
  -0.0000018299    0.0000052697    0.0000106701
  -0.0000095499    0.0002481997   -0.0000537899
  -0.0000717699    0.0000578397   -0.0000029999
  -0.0000634899   -0.0000382203   -0.0000128899
   0.0000823201   -0.0002298703    0.0000043001
   0.0001834301   -0.0000967203    0.0000048701
  -0.0000660499    0.0000644497   -0.0001362699
  -0.0000657999    0.0000180497    0.0000009101
  -0.0000434799    0.0000384597    0.0001162301
   0.0000171201    0.0000793597    0.0000695701
   0.0000670001   -0.0000932903   -0.0000994799
  -0.0000331699   -0.0000109503   -0.0000209899
  -0.0000420999    0.0000411597    0.0000236401
  -0.0000172499    0.0000488197    0.0000015501
   0.0000116901    0.0000082297   -0.0000093399
   0.0000139401   -0.0000319103   -0.0000091399
  -0.0000017799    0.0000040597    0.0000023801
  -0.0000104799    0.0000931997   -0.0000589499
  -0.0000422799    0.0000469397   -0.0000227199
  -0.0000246499   -0.0000186603    0.0000125101
   0.0000727501   -0.0000989703    0.0000570401
   0.0001860701   -0.0000181403   -0.0000278099
  -0.0000448199   -0.0000117503    0.0000664501
  -0.0000683999   -0.0000004503    0.0000072001
  -0.0000645299   -0.0000122003   -0.0000578999
   0.0000013401    0.0000343497   -0.0000551699
   0.0000800101   -0.0000118803   -0.0000107699
  -0.0000350499   -0.0000070703    0.0000183701
  -0.0000485699    0.0000227897   -0.0000068499
  -0.0000140699    0.0000403297    0.0000023201
   0.0000137501    0.0000181497   -0.0000040899
   0.0000115601   -0.0000145503    0.0000014401
  -0.0000031599    0.0000120897    0.0000065601
   0.0000112001    0.0000213897    0.0000331001
  -0.0000352699    0.0000219697    0.0000140801
  -0.0000278399   -0.0000145303   -0.0000066799
   0.0000600701   -0.0000315103   -0.0000069799
   0.0005708801    0.0002506897   -0.0003809299
  -0.0001014999    0.0000677997   -0.0000544399
  -0.0000887699   -0.0000171003    0.0000275101
  -0.0001897699   -0.0002296403    0.0002995201
   0.0003719901    0.0003621297    0.0003047001
  -0.0002316899   -0.0004059103   -0.0002887399
  -0.0000941499   -0.0000390603   -0.0000245399
  -0.0000877399    0.0000383297    0.0000465601
  -0.0000010899    0.0000719897    0.0000193801
   0.0000450201   -0.0000163903    0.0000225001
  -0.0000341499   -0.0000687203   -0.0000253499
  -0.0000258199    0.0000147597   -0.0000095299
   0.0000029601    0.0000741297   -0.0000204999
  -0.0000312399    0.0000307997    0.0000113101
  -0.0000295699   -0.0000461703    0.0000264501
   0.0000388701   -0.0000250403   -0.0000135499
   0.0000647001   -0.0000050703   -0.0000020899
  -0.0000296999    0.0000224097    0.0000047001
  -0.0000521599   -0.0000038503    0.0000055801
   0.0000135401   -0.0000319503   -0.0000042499
   0.0000479201   -0.0000008703   -0.0000169499
   0.0000281201   -0.0000412803    0.0000048101
  -0.0000472899   -0.0000166103   -0.0000009799
  -0.0000373099    0.0000170197   -0.0000126199
  -0.0000104299    0.0000438797   -0.0000122599
   0.0000163101   -0.0000041403    0.0000008001
  -0.0000067099   -0.0000343603    0.0000010901
  -0.0000176799    0.0000132797   -0.0000089299
   0.0000007801    0.0000429597   -0.0000045699
  -0.0000262999    0.0000255397    0.0000048601
  -0.0000126399   -0.0000210803    0.0000072601
   0.0000241901   -0.0000073903   -0.0000037999
  -0.0000597199    0.0005441097    0.0004913401
  -0.0001389499    0.0001308497    0.0000862401
  -0.0000879299   -0.0000044203   -0.0000035799
  -0.0000813499   -0.0001763503   -0.0001513099
  -0.0004722899    0.0007822497   -0.0008013499
  -0.0001082299   -0.0002892503    0.0002364901
  -0.0000939599   -0.0000206103    0.0000055801
  -0.0001372799    0.0000725997   -0.0000922099
  -0.0000353499    0.0000924997   -0.0000354999
   0.0000878401    0.0000003597    0.0000612901
  -0.0000166799   -0.0000597803    0.0000039701
  -0.0000347599    0.0000210797   -0.0000194699
  -0.0000271199    0.0000928397    0.0000162401
  -0.0000340999    0.0000413197    0.0000118501
  -0.0000147999   -0.0000411903    0.0000048501
   0.0000642201   -0.0000332703   -0.0000445199
  -0.0019051399    0.0000372197    0.0013363801
  -0.0019011899    0.0005212397   -0.0018308599
  -0.0001904499    0.0000158697   -0.0000773599
  -0.0001863299    0.0000086697    0.0000522101
  -0.0000760299    0.0000877897    0.0000368601
   0.0002948901    0.0000405297   -0.0000021999
  -0.0000845899   -0.0001589603    0.0000216101
  -0.0000641299   -0.0000109603    0.0000081401
   0.0000020601    0.0000261097    0.0000121601
   0.0000050001    0.0000320097    0.0000010501
   0.0000010501   -0.0000396003   -0.0000041499
  -0.0000018199   -0.0000406903    0.0000056401
   0.0002204201   -0.0000015603    0.0000560301
  -0.0000592199    0.0001004297   -0.0000208999
  -0.0000584099   -0.0000020003   -0.0000104599
  -0.0000585599   -0.0001119203   -0.0000275099
   0.0000612801   -0.0000077703    0.0000397801
   0.0000605301    0.0000016797   -0.0000417199
  -0.0000597899    0.0000041597   -0.0000295499
  -0.0000591299    0.0000012297    0.0000117201
  -0.0000137499    0.0000161797    0.0000082701
   0.0000700501   -0.0000028803   -0.0000069399
  -0.0000167099   -0.0000319703   -0.0000283199
  -0.0000318999   -0.0000097603   -0.0000026499
   0.0000051101    0.0000087597    0.0000015401
   0.0000018601    0.0000128397   -0.0000075499
  -0.0000003899   -0.0000188703   -0.0000104499
   0.0000028401   -0.0000217703    0.0000000501
   0.0000694801    0.0000018697    0.0000049801
  -0.0000119099    0.0000257697   -0.0000180799
  -0.0000355399    0.0000028197   -0.0000081599
  -0.0000135099   -0.0000201103    0.0000127501
   0.0000412401   -0.0001751403   -0.0003352099
   0.0000368301    0.0000520297    0.0003097501
  -0.0000715799   -0.0000207103    0.0000361901
  -0.0000682899   -0.0000222203   -0.0000423799
  -0.0000270899    0.0000515397   -0.0000433499
   0.0001547101    0.0001661597   -0.0000949499
  -0.0000319499   -0.0001084103    0.0000710101
  -0.0000399499   -0.0000169303    0.0000028101
   0.0000023601    0.0000264897    0.0000109601
   0.0000053601    0.0000346397   -0.0000091999
   0.0000039201   -0.0000221603   -0.0000044599
   0.0000010401   -0.0000293703    0.0000044801
   0.0000819101    0.0000744497    0.0000707701
  -0.0000142699    0.0000557897    0.0000467201
  -0.0000354599   -0.0000027903   -0.0000084199
  -0.0000121299   -0.0000746003   -0.0000656799
  -0.0001409099    0.0000454497   -0.0001030199
   0.0001035901   -0.0000116103    0.0001349601
   0.0000385201   -0.0000109003    0.0000188101
   0.0000345301   -0.0000175803   -0.0000185799
   0.0000073701   -0.0000313803   -0.0000029299
  -0.0000299499    0.0000425297   -0.0000096799
   0.0000122301    0.0000143597    0.0000066101
   0.0000196601   -0.0000166503    0.0000069501
   0.0000162901   -0.0000316603    0.0000172001
   0.0000095101   -0.0000066903    0.0000042701
  -0.0000034799    0.0000262497   -0.0000124199
  -0.0000087099    0.0000100597   -0.0000049799
  -0.0000182199   -0.0001077703    0.0001239101
   0.0000445301   -0.0000429803    0.0000388601
   0.0000239801    0.0000064697   -0.0000033999
  -0.0000391699    0.0001076497   -0.0001071399
  -0.0000355799    0.0000164097    0.0000041501
  -0.0000030699    0.0000213097   -0.0000220699
   0.0000243001   -0.0000043003    0.0000066801
   0.0000245201   -0.0000155403    0.0000229701
   0.0000115601   -0.0000237803    0.0000201501
  -0.0000157899    0.0000112597   -0.0000026799
   0.0000052501    0.0000134297   -0.0000055699
   0.0000176201   -0.0000133403    0.0000101801
   0.0000105501   -0.0000188603    0.0000073401
   0.0000072501   -0.0000066503    0.0000043801
  -0.0000021999    0.0000156297   -0.0000045899
  -0.0000033899    0.0000038997   -0.0000027699
  -0.0000141799    0.0000030897   -0.0000148199
   0.0000184301   -0.0000136803    0.0000048501
   0.0000168201    0.0000010997    0.0000059301
  -0.0000149499    0.0000241797   -0.0000025999
  -0.0019279399    0.0021490897   -0.0011107899
   0.0000890401    0.0000982897   -0.0001170199
   0.0000448601   -0.0000091103    0.0000090201
   0.0001388101   -0.0000933603    0.0001048201
   0.0000313701   -0.0000845403    0.0000251201
  -0.0000544799    0.0000752797   -0.0000441299
   0.0000080301    0.0000260297   -0.0000119599
   0.0000278501   -0.0000261403    0.0000139101
   0.0000226601   -0.0000422403    0.0000126101
   0.0000107101   -0.0000106403    0.0000040601
  -0.0000030199    0.0000278797   -0.0000076099
  -0.0000149999    0.0000116397   -0.0000021399
  -0.0000163199   -0.0001567203   -0.0000459199